<?xml version="1.0" encoding="UTF-8"?>

<!-- generated on 2025-03-17 02:19:17 by Eclipse SUMO sumo Version 1.21.0
<sumoConfiguration xmlns:xsi="http://www.w3.org/2001/XMLSchema-instance" xsi:noNamespaceSchemaLocation="http://sumo.dlr.de/xsd/sumoConfiguration.xsd">

    <input>
        <net-file value="osm_updated.net.xml.gz"/>
        <route-files value="osm.bicycle.trips.xml,osm.bus.trips.xml,osm.motorcycle.trips.xml,osm.passenger.trips.xml,osm.truck.trips.xml"/>
        <additional-files value="osm.poly.xml.gz"/>
    </input>

    <output>
        <queue-output value="queue.xml"/>
        <tripinfo-output value="tripinfo.xml"/>
        <statistic-output value="statistics.xml"/>
    </output>

    <processing>
        <ignore-route-errors value="true"/>
        <tls.actuated.jam-threshold value="30"/>
    </processing>

    <routing>
        <device.rerouting.adaptation-steps value="18"/>
        <device.rerouting.adaptation-interval value="10"/>
    </routing>

    <report>
        <verbose value="true"/>
        <error-log value="sumo_errors.log"/>
        <duration-log.statistics value="true"/>
        <no-step-log value="true"/>
    </report>

    <traci_server>
        <remote-port value="53306"/>
    </traci_server>

    <gui_only>
        <gui-settings-file value="osm.view.xml"/>
    </gui_only>

</sumoConfiguration>
-->

<tripinfos xmlns:xsi="http://www.w3.org/2001/XMLSchema-instance" xsi:noNamespaceSchemaLocation="http://sumo.dlr.de/xsd/tripinfo_file.xsd">
    <tripinfo id="motorcycle0" depart="0.00" departLane="142049043#6_3" departPos="2.30" departSpeed="0.00" departDelay="0.00" arrival="27.00" arrivalLane="1126771718#0_0" arrivalPos="187.17" arrivalSpeed="14.85" duration="27.00" routeLength="326.89" waitingTime="0.00" waitingCount="0" stopTime="0.00" timeLoss="6.13" rerouteNo="1" devices="tripinfo_motorcycle0 routing_motorcycle0" vType="motorcycle_motorcycle" speedFactor="0.94" vaporized=""/>
    <tripinfo id="truck0" depart="0.00" departLane="143870422#0_1" departPos="7.20" departSpeed="0.00" departDelay="0.00" arrival="59.00" arrivalLane="1126771718#0_1" arrivalPos="187.17" arrivalSpeed="17.28" duration="59.00" routeLength="608.18" waitingTime="6.00" waitingCount="1" stopTime="0.00" timeLoss="31.23" rerouteNo="1" devices="tripinfo_truck0 routing_truck0" vType="truck_truck" speedFactor="1.04" vaporized=""/>
    <tripinfo id="bus0" depart="0.00" departLane="143870422#0_0" departPos="12.10" departSpeed="0.00" departDelay="0.00" arrival="60.00" arrivalLane="1126771718#0_0" arrivalPos="187.17" arrivalSpeed="16.42" duration="60.00" routeLength="603.28" waitingTime="5.00" waitingCount="1" stopTime="0.00" timeLoss="31.39" rerouteNo="1" devices="tripinfo_bus0 routing_bus0" vType="bus_bus" speedFactor="1.00" vaporized=""/>
    <tripinfo id="flow_south_to_west.0" depart="0.00" departLane="142049043#0_0" departPos="5.10" departSpeed="0.00" departDelay="0.00" arrival="64.00" arrivalLane="1126771718#2_0" arrivalPos="124.70" arrivalSpeed="14.78" duration="64.00" routeLength="1024.40" waitingTime="0.00" waitingCount="0" stopTime="0.00" timeLoss="11.63" rerouteNo="1" devices="tripinfo_flow_south_to_west.0 routing_flow_south_to_west.0" vType="veh_passenger" speedFactor="0.94" vaporized=""/>
    <tripinfo id="flow_east_to_south.0" depart="3.00" departLane="143870423_0" departPos="5.10" departSpeed="0.00" departDelay="3.00" arrival="64.00" arrivalLane="13848342#5_0" arrivalPos="189.10" arrivalSpeed="24.96" duration="61.00" routeLength="884.27" waitingTime="4.00" waitingCount="1" stopTime="0.00" timeLoss="25.05" rerouteNo="1" devices="tripinfo_flow_east_to_south.0 routing_flow_east_to_south.0" vType="veh_passenger" speedFactor="0.93" vaporized=""/>
    <tripinfo id="flow_east_to_south.1" depart="18.00" departLane="143870423_0" departPos="5.10" departSpeed="0.00" departDelay="0.00" arrival="68.00" arrivalLane="13848342#5_0" arrivalPos="189.10" arrivalSpeed="24.44" duration="50.00" routeLength="884.27" waitingTime="0.00" waitingCount="0" stopTime="0.00" timeLoss="12.54" rerouteNo="1" devices="tripinfo_flow_east_to_south.1 routing_flow_east_to_south.1" vType="veh_passenger" speedFactor="0.89" vaporized=""/>
    <tripinfo id="flow_east_to_west.0" depart="0.00" departLane="143870423_0" departPos="5.10" departSpeed="0.00" departDelay="0.00" arrival="75.00" arrivalLane="1126771718#2_2" arrivalPos="124.70" arrivalSpeed="16.36" duration="75.00" routeLength="930.39" waitingTime="5.00" waitingCount="1" stopTime="0.00" timeLoss="29.27" rerouteNo="1" devices="tripinfo_flow_east_to_west.0 routing_flow_east_to_west.0" vType="veh_passenger" speedFactor="0.99" vaporized=""/>
    <tripinfo id="flow_east_to_west.1" depart="15.00" departLane="143870423_0" departPos="5.10" departSpeed="0.00" departDelay="0.60" arrival="76.00" arrivalLane="1126771718#2_1" arrivalPos="124.70" arrivalSpeed="16.17" duration="61.00" routeLength="930.39" waitingTime="0.00" waitingCount="0" stopTime="0.00" timeLoss="15.83" rerouteNo="1" devices="tripinfo_flow_east_to_west.1 routing_flow_east_to_west.1" vType="veh_passenger" speedFactor="1.01" vaporized=""/>
    <tripinfo id="flow_west_to_north.0" depart="3.00" departLane="15491645#0_0" departPos="5.10" departSpeed="0.00" departDelay="3.00" arrival="79.00" arrivalLane="141821922#6_0" arrivalPos="162.96" arrivalSpeed="16.42" duration="76.00" routeLength="1174.35" waitingTime="0.00" waitingCount="0" stopTime="0.00" timeLoss="11.40" rerouteNo="1" devices="tripinfo_flow_west_to_north.0 routing_flow_west_to_north.0" vType="veh_passenger" speedFactor="1.05" vaporized=""/>
    <tripinfo id="flow_east_to_south.2" depart="36.00" departLane="143870423_0" departPos="5.10" departSpeed="0.00" departDelay="0.00" arrival="80.00" arrivalLane="13848342#5_0" arrivalPos="189.10" arrivalSpeed="27.93" duration="44.00" routeLength="884.27" waitingTime="0.00" waitingCount="0" stopTime="0.00" timeLoss="12.87" rerouteNo="1" devices="tripinfo_flow_east_to_south.2 routing_flow_east_to_south.2" vType="veh_passenger" speedFactor="1.04" vaporized=""/>
    <tripinfo id="truck1" depart="31.00" departLane="141821921#1_1" departPos="7.20" departSpeed="16.92" departDelay="0.57" arrival="82.00" arrivalLane="13848342#1_1" arrivalPos="11.60" arrivalSpeed="14.59" duration="51.00" routeLength="771.66" waitingTime="0.00" waitingCount="0" stopTime="0.00" timeLoss="6.19" rerouteNo="1" devices="tripinfo_truck1 routing_truck1" vType="truck_truck" speedFactor="1.02" vaporized=""/>
    <tripinfo id="flow_east_to_west.2" depart="29.00" departLane="143870423_0" departPos="5.10" departSpeed="0.00" departDelay="0.20" arrival="86.00" arrivalLane="1126771718#2_0" arrivalPos="124.70" arrivalSpeed="14.70" duration="57.00" routeLength="930.39" waitingTime="0.00" waitingCount="0" stopTime="0.00" timeLoss="8.26" rerouteNo="1" devices="tripinfo_flow_east_to_west.2 routing_flow_east_to_west.2" vType="veh_passenger" speedFactor="0.93" vaporized=""/>
    <tripinfo id="flow_north_to_east.0" depart="6.00" departLane="141821921#1_0" departPos="5.10" departSpeed="0.00" departDelay="6.00" arrival="94.00" arrivalLane="566501599_0" arrivalPos="82.30" arrivalSpeed="30.92" duration="88.00" routeLength="1144.85" waitingTime="19.00" waitingCount="1" stopTime="0.00" timeLoss="34.75" rerouteNo="1" devices="tripinfo_flow_north_to_east.0 routing_flow_north_to_east.0" vType="veh_passenger" speedFactor="1.12" vaporized=""/>
    <tripinfo id="flow_north_to_south.1" depart="15.00" departLane="141821921#1_0" departPos="5.10" departSpeed="0.00" departDelay="0.60" arrival="94.00" arrivalLane="13848342#5_1" arrivalPos="189.10" arrivalSpeed="31.84" duration="79.00" routeLength="1198.06" waitingTime="11.00" waitingCount="1" stopTime="0.00" timeLoss="26.60" rerouteNo="1" devices="tripinfo_flow_north_to_south.1 routing_flow_north_to_south.1" vType="veh_passenger" speedFactor="1.16" vaporized=""/>
    <tripinfo id="flow_north_to_south.0" depart="3.00" departLane="141821921#1_0" departPos="5.10" departSpeed="0.00" departDelay="3.00" arrival="96.00" arrivalLane="13848342#5_0" arrivalPos="189.10" arrivalSpeed="28.67" duration="93.00" routeLength="1198.06" waitingTime="19.00" waitingCount="1" stopTime="0.00" timeLoss="34.55" rerouteNo="1" devices="tripinfo_flow_north_to_south.0 routing_flow_north_to_south.0" vType="veh_passenger" speedFactor="1.05" vaporized=""/>
    <tripinfo id="flow_east_to_north.0" depart="6.00" departLane="143870423_0" departPos="5.10" departSpeed="0.00" departDelay="6.00" arrival="97.00" arrivalLane="141821922#6_1" arrivalPos="162.96" arrivalSpeed="13.81" duration="91.00" routeLength="1176.05" waitingTime="2.00" waitingCount="1" stopTime="0.00" timeLoss="20.76" rerouteNo="1" devices="tripinfo_flow_east_to_north.0 routing_flow_east_to_north.0" vType="veh_passenger" speedFactor="0.88" vaporized=""/>
    <tripinfo id="flow_north_to_east.1" depart="18.00" departLane="141821921#1_0" departPos="5.10" departSpeed="0.00" departDelay="3.60" arrival="98.00" arrivalLane="566501599_0" arrivalPos="82.30" arrivalSpeed="27.14" duration="80.00" routeLength="1144.85" waitingTime="6.00" waitingCount="1" stopTime="0.00" timeLoss="21.09" rerouteNo="1" devices="tripinfo_flow_north_to_east.1 routing_flow_north_to_east.1" vType="veh_passenger" speedFactor="1.02" vaporized=""/>
    <tripinfo id="flow_north_to_east.2" depart="32.00" departLane="141821921#1_0" departPos="5.10" departSpeed="0.00" departDelay="3.20" arrival="99.00" arrivalLane="566501599_0" arrivalPos="82.30" arrivalSpeed="30.99" duration="67.00" routeLength="1144.85" waitingTime="0.00" waitingCount="0" stopTime="0.00" timeLoss="14.52" rerouteNo="1" devices="tripinfo_flow_north_to_east.2 routing_flow_north_to_east.2" vType="veh_passenger" speedFactor="1.13" vaporized=""/>
    <tripinfo id="flow_north_to_south.2" depart="29.00" departLane="141821921#1_0" departPos="5.10" departSpeed="0.00" departDelay="0.20" arrival="101.00" arrivalLane="13848342#5_1" arrivalPos="189.10" arrivalSpeed="25.99" duration="72.00" routeLength="1198.06" waitingTime="0.00" waitingCount="0" stopTime="0.00" timeLoss="7.85" rerouteNo="1" devices="tripinfo_flow_north_to_south.2 routing_flow_north_to_south.2" vType="veh_passenger" speedFactor="0.95" vaporized=""/>
    <tripinfo id="flow_east_to_north.1" depart="21.00" departLane="143870423_0" departPos="5.10" departSpeed="0.00" departDelay="2.05" arrival="106.00" arrivalLane="141821922#6_0" arrivalPos="162.96" arrivalSpeed="13.09" duration="85.00" routeLength="1176.05" waitingTime="0.00" waitingCount="0" stopTime="0.00" timeLoss="9.87" rerouteNo="1" devices="tripinfo_flow_east_to_north.1 routing_flow_east_to_north.1" vType="veh_passenger" speedFactor="0.83" vaporized=""/>
    <tripinfo id="flow_east_to_north.2" depart="39.00" departLane="143870423_0" departPos="5.10" departSpeed="0.00" departDelay="1.11" arrival="106.00" arrivalLane="141821922#6_2" arrivalPos="162.96" arrivalSpeed="18.13" duration="67.00" routeLength="1176.05" waitingTime="0.00" waitingCount="0" stopTime="0.00" timeLoss="9.96" rerouteNo="1" devices="tripinfo_flow_east_to_north.2 routing_flow_east_to_north.2" vType="veh_passenger" speedFactor="1.09" vaporized=""/>
    <tripinfo id="flow_east_to_west.3" depart="44.00" departLane="143870423_0" departPos="5.10" departSpeed="0.00" departDelay="0.80" arrival="106.00" arrivalLane="1126771718#2_0" arrivalPos="124.70" arrivalSpeed="12.95" duration="62.00" routeLength="930.39" waitingTime="0.00" waitingCount="0" stopTime="0.00" timeLoss="7.98" rerouteNo="1" devices="tripinfo_flow_east_to_west.3 routing_flow_east_to_west.3" vType="veh_passenger" speedFactor="0.85" vaporized=""/>
    <tripinfo id="flow_north_to_west.0" depart="0.00" departLane="141821921#1_0" departPos="5.10" departSpeed="0.00" departDelay="0.00" arrival="107.00" arrivalLane="1126771718#2_2" arrivalPos="124.70" arrivalSpeed="16.69" duration="107.00" routeLength="1219.50" waitingTime="21.00" waitingCount="1" stopTime="0.00" timeLoss="34.19" rerouteNo="1" devices="tripinfo_flow_north_to_west.0 routing_flow_north_to_west.0" vType="veh_passenger" speedFactor="1.03" vaporized=""/>
    <tripinfo id="bus1" depart="61.00" departLane="141821921#1_1" departPos="12.10" departSpeed="16.67" departDelay="0.14" arrival="108.00" arrivalLane="13848342#1_0" arrivalPos="11.60" arrivalSpeed="20.18" duration="47.00" routeLength="766.76" waitingTime="0.00" waitingCount="0" stopTime="0.00" timeLoss="2.04" rerouteNo="1" devices="tripinfo_bus1 routing_bus1" vType="bus_bus" speedFactor="1.00" vaporized=""/>
    <tripinfo id="flow_north_to_west.1" depart="12.00" departLane="141821921#1_0" departPos="5.10" departSpeed="0.00" departDelay="0.00" arrival="112.00" arrivalLane="1126771718#2_1" arrivalPos="124.70" arrivalSpeed="14.40" duration="100.00" routeLength="1219.50" waitingTime="7.00" waitingCount="1" stopTime="0.00" timeLoss="20.33" rerouteNo="1" devices="tripinfo_flow_north_to_west.1 routing_flow_north_to_west.1" vType="veh_passenger" speedFactor="0.94" vaporized=""/>
    <tripinfo id="flow_north_to_west.2" depart="24.00" departLane="141821921#1_0" departPos="5.10" departSpeed="0.00" departDelay="0.00" arrival="114.00" arrivalLane="1126771718#2_1" arrivalPos="124.70" arrivalSpeed="14.50" duration="90.00" routeLength="1219.50" waitingTime="0.00" waitingCount="0" stopTime="0.00" timeLoss="9.12" rerouteNo="1" devices="tripinfo_flow_north_to_west.2 routing_flow_north_to_west.2" vType="veh_passenger" speedFactor="0.92" vaporized=""/>
    <tripinfo id="flow_north_to_west.3" depart="36.00" departLane="141821921#1_0" departPos="5.10" departSpeed="0.00" departDelay="0.00" arrival="115.00" arrivalLane="1126771718#2_2" arrivalPos="124.70" arrivalSpeed="17.07" duration="79.00" routeLength="1219.50" waitingTime="0.00" waitingCount="0" stopTime="0.00" timeLoss="7.05" rerouteNo="1" devices="tripinfo_flow_north_to_west.3 routing_flow_north_to_west.3" vType="veh_passenger" speedFactor="1.04" vaporized=""/>
    <tripinfo id="flow_west_to_north.1" depart="39.00" departLane="15491645#0_0" departPos="5.10" departSpeed="0.00" departDelay="3.00" arrival="116.00" arrivalLane="141821922#6_0" arrivalPos="162.96" arrivalSpeed="16.34" duration="77.00" routeLength="1174.35" waitingTime="0.00" waitingCount="0" stopTime="0.00" timeLoss="12.18" rerouteNo="1" devices="tripinfo_flow_west_to_north.1 routing_flow_west_to_north.1" vType="veh_passenger" speedFactor="1.03" vaporized=""/>
    <tripinfo id="flow_north_to_south.3" depart="44.00" departLane="141821921#1_0" departPos="5.10" departSpeed="0.00" departDelay="0.80" arrival="118.00" arrivalLane="13848342#5_0" arrivalPos="189.10" arrivalSpeed="24.18" duration="74.00" routeLength="1198.06" waitingTime="0.00" waitingCount="0" stopTime="0.00" timeLoss="6.31" rerouteNo="1" devices="tripinfo_flow_north_to_south.3 routing_flow_north_to_south.3" vType="veh_passenger" speedFactor="0.90" vaporized=""/>
    <tripinfo id="flow_north_to_west.4" depart="50.00" departLane="141821921#1_0" departPos="5.10" departSpeed="0.00" departDelay="2.00" arrival="120.00" arrivalLane="1126771718#2_2" arrivalPos="124.70" arrivalSpeed="19.31" duration="70.00" routeLength="1219.50" waitingTime="0.00" waitingCount="0" stopTime="0.00" timeLoss="6.36" rerouteNo="1" devices="tripinfo_flow_north_to_west.4 routing_flow_north_to_west.4" vType="veh_passenger" speedFactor="1.17" vaporized=""/>
    <tripinfo id="truck2" depart="61.00" departLane="24375730#1_3" departPos="7.20" departSpeed="0.00" departDelay="0.14" arrival="124.00" arrivalLane="1126771718#3_2" arrivalPos="6.67" arrivalSpeed="18.04" duration="63.00" routeLength="929.29" waitingTime="0.00" waitingCount="0" stopTime="0.00" timeLoss="11.01" rerouteNo="1" devices="tripinfo_truck2 routing_truck2" vType="truck_truck" speedFactor="1.09" vaporized=""/>
    <tripinfo id="flow_north_to_east.3" depart="47.00" departLane="141821921#1_0" departPos="5.10" departSpeed="0.00" departDelay="3.80" arrival="124.00" arrivalLane="566501599_0" arrivalPos="82.30" arrivalSpeed="24.26" duration="77.00" routeLength="1144.85" waitingTime="0.00" waitingCount="0" stopTime="0.00" timeLoss="8.57" rerouteNo="1" devices="tripinfo_flow_north_to_east.3 routing_flow_north_to_east.3" vType="veh_passenger" speedFactor="0.88" vaporized=""/>
    <tripinfo id="flow_west_to_east.1" depart="42.00" departLane="15491645#0_0" departPos="5.10" departSpeed="0.00" departDelay="2.00" arrival="132.00" arrivalLane="566501599_0" arrivalPos="82.30" arrivalSpeed="26.57" duration="90.00" routeLength="931.11" waitingTime="29.00" waitingCount="1" stopTime="0.00" timeLoss="44.47" rerouteNo="1" devices="tripinfo_flow_west_to_east.1 routing_flow_west_to_east.1" vType="veh_passenger" speedFactor="1.00" vaporized=""/>
    <tripinfo id="flow_west_to_east.2" depart="80.00" departLane="15491645#0_0" departPos="5.10" departSpeed="0.00" departDelay="0.00" arrival="133.00" arrivalLane="566501599_1" arrivalPos="82.30" arrivalSpeed="27.65" duration="53.00" routeLength="931.11" waitingTime="0.00" waitingCount="0" stopTime="0.00" timeLoss="8.97" rerouteNo="1" devices="tripinfo_flow_west_to_east.2 routing_flow_west_to_east.2" vType="veh_passenger" speedFactor="1.02" vaporized=""/>
    <tripinfo id="flow_west_to_east.0" depart="6.00" departLane="15491645#0_0" departPos="5.10" departSpeed="0.00" departDelay="6.00" arrival="134.00" arrivalLane="566501599_0" arrivalPos="82.30" arrivalSpeed="23.70" duration="128.00" routeLength="931.11" waitingTime="63.00" waitingCount="1" stopTime="0.00" timeLoss="76.69" rerouteNo="1" devices="tripinfo_flow_west_to_east.0 routing_flow_west_to_east.0" vType="veh_passenger" speedFactor="0.89" vaporized=""/>
    <tripinfo id="flow_west_to_south.0" depart="0.00" departLane="15491645#0_0" departPos="5.10" departSpeed="0.00" departDelay="0.00" arrival="136.00" arrivalLane="13848342#5_3" arrivalPos="189.10" arrivalSpeed="22.11" duration="136.00" routeLength="955.02" waitingTime="67.00" waitingCount="1" stopTime="0.00" timeLoss="79.10" rerouteNo="1" devices="tripinfo_flow_west_to_south.0 routing_flow_west_to_south.0" vType="veh_passenger" speedFactor="0.83" vaporized=""/>
    <tripinfo id="flow_west_to_south.1" depart="36.00" departLane="15491645#0_0" departPos="5.10" departSpeed="0.00" departDelay="0.00" arrival="138.00" arrivalLane="13848342#5_3" arrivalPos="189.10" arrivalSpeed="24.32" duration="102.00" routeLength="955.02" waitingTime="35.00" waitingCount="1" stopTime="0.00" timeLoss="48.93" rerouteNo="1" devices="tripinfo_flow_west_to_south.1 routing_flow_west_to_south.1" vType="veh_passenger" speedFactor="0.90" vaporized=""/>
    <tripinfo id="flow_west_to_south.2" depart="72.00" departLane="15491645#0_0" departPos="5.10" departSpeed="0.00" departDelay="0.00" arrival="139.00" arrivalLane="13848342#5_3" arrivalPos="189.10" arrivalSpeed="26.84" duration="67.00" routeLength="955.02" waitingTime="5.00" waitingCount="1" stopTime="0.00" timeLoss="23.14" rerouteNo="1" devices="tripinfo_flow_west_to_south.2 routing_flow_west_to_south.2" vType="veh_passenger" speedFactor="1.08" vaporized=""/>
    <tripinfo id="flow_west_to_north.2" depart="75.00" departLane="15491645#0_0" departPos="5.10" departSpeed="0.00" departDelay="3.00" arrival="147.00" arrivalLane="141821922#6_0" arrivalPos="162.96" arrivalSpeed="17.91" duration="72.00" routeLength="1174.35" waitingTime="0.00" waitingCount="0" stopTime="0.00" timeLoss="11.60" rerouteNo="1" devices="tripinfo_flow_west_to_north.2 routing_flow_west_to_north.2" vType="veh_passenger" speedFactor="1.12" vaporized=""/>
    <tripinfo id="flow_west_to_south.3" depart="108.00" departLane="15491645#0_0" departPos="5.10" departSpeed="0.00" departDelay="0.00" arrival="158.00" arrivalLane="13848342#5_3" arrivalPos="189.10" arrivalSpeed="31.60" duration="50.00" routeLength="955.02" waitingTime="0.00" waitingCount="0" stopTime="0.00" timeLoss="8.27" rerouteNo="1" devices="tripinfo_flow_west_to_south.3 routing_flow_west_to_south.3" vType="veh_passenger" speedFactor="1.15" vaporized=""/>
    <tripinfo id="flow_south_to_east.0" depart="6.00" departLane="142049043#0_0" departPos="5.10" departSpeed="0.00" departDelay="6.00" arrival="166.00" arrivalLane="566501599_1" arrivalPos="82.30" arrivalSpeed="29.47" duration="160.00" routeLength="1013.15" waitingTime="108.00" waitingCount="1" stopTime="0.00" timeLoss="124.95" rerouteNo="1" devices="tripinfo_flow_south_to_east.0 routing_flow_south_to_east.0" vType="veh_passenger" speedFactor="1.09" vaporized=""/>
    <tripinfo id="flow_south_to_east.1" depart="123.00" departLane="142049043#0_0" departPos="5.10" departSpeed="0.00" departDelay="3.00" arrival="171.00" arrivalLane="566501599_1" arrivalPos="82.30" arrivalSpeed="27.55" duration="48.00" routeLength="1013.15" waitingTime="0.00" waitingCount="0" stopTime="0.00" timeLoss="9.50" rerouteNo="1" devices="tripinfo_flow_south_to_east.1 routing_flow_south_to_east.1" vType="veh_passenger" speedFactor="1.01" vaporized=""/>
    <tripinfo id="flow_south_to_west.1" depart="12.00" departLane="142049043#0_0" departPos="5.10" departSpeed="0.00" departDelay="0.00" arrival="179.00" arrivalLane="1126771718#2_0" arrivalPos="124.70" arrivalSpeed="14.40" duration="167.00" routeLength="1024.40" waitingTime="99.00" waitingCount="1" stopTime="0.00" timeLoss="114.16" rerouteNo="1" devices="tripinfo_flow_south_to_west.1 routing_flow_south_to_west.1" vType="veh_passenger" speedFactor="0.94" vaporized=""/>
    <tripinfo id="flow_south_to_west.3" depart="36.00" departLane="142049043#0_0" departPos="5.10" departSpeed="0.00" departDelay="0.00" arrival="186.00" arrivalLane="1126771718#2_1" arrivalPos="124.70" arrivalSpeed="15.35" duration="150.00" routeLength="1024.40" waitingTime="80.00" waitingCount="1" stopTime="0.00" timeLoss="98.89" rerouteNo="1" devices="tripinfo_flow_south_to_west.3 routing_flow_south_to_west.3" vType="veh_passenger" speedFactor="0.96" vaporized=""/>
    <tripinfo id="flow_south_to_west.2" depart="24.00" departLane="142049043#0_0" departPos="5.10" departSpeed="0.00" departDelay="0.00" arrival="188.00" arrivalLane="1126771718#2_0" arrivalPos="124.70" arrivalSpeed="13.78" duration="164.00" routeLength="1024.40" waitingTime="89.00" waitingCount="1" stopTime="0.00" timeLoss="106.42" rerouteNo="1" devices="tripinfo_flow_south_to_west.2 routing_flow_south_to_west.2" vType="veh_passenger" speedFactor="0.87" vaporized=""/>
    <tripinfo id="flow_west_to_north.3" depart="111.00" departLane="15491645#0_0" departPos="5.10" departSpeed="0.00" departDelay="3.00" arrival="190.00" arrivalLane="141821922#6_0" arrivalPos="162.96" arrivalSpeed="16.06" duration="79.00" routeLength="1174.35" waitingTime="0.00" waitingCount="0" stopTime="0.00" timeLoss="10.55" rerouteNo="1" devices="tripinfo_flow_west_to_north.3 routing_flow_west_to_north.3" vType="veh_passenger" speedFactor="0.98" vaporized=""/>
    <tripinfo id="flow_south_to_north.2" depart="39.00" departLane="142049043#0_0" departPos="5.10" departSpeed="0.00" departDelay="3.00" arrival="191.00" arrivalLane="141821922#6_2" arrivalPos="162.96" arrivalSpeed="17.88" duration="152.00" routeLength="1300.84" waitingTime="76.00" waitingCount="1" stopTime="0.00" timeLoss="92.47" rerouteNo="1" devices="tripinfo_flow_south_to_north.2 routing_flow_south_to_north.2" vType="veh_passenger" speedFactor="1.09" vaporized=""/>
    <tripinfo id="flow_south_to_west.5" depart="60.00" departLane="142049043#0_0" departPos="5.10" departSpeed="0.00" departDelay="0.00" arrival="191.00" arrivalLane="1126771718#2_1" arrivalPos="124.70" arrivalSpeed="16.83" duration="131.00" routeLength="1024.40" waitingTime="58.00" waitingCount="1" stopTime="0.00" timeLoss="81.68" rerouteNo="1" devices="tripinfo_flow_south_to_west.5 routing_flow_south_to_west.5" vType="veh_passenger" speedFactor="1.02" vaporized=""/>
    <tripinfo id="flow_south_to_west.4" depart="48.00" departLane="142049043#0_0" departPos="5.10" departSpeed="0.00" departDelay="0.00" arrival="193.00" arrivalLane="1126771718#2_0" arrivalPos="124.70" arrivalSpeed="14.03" duration="145.00" routeLength="1024.40" waitingTime="69.00" waitingCount="1" stopTime="0.00" timeLoss="87.52" rerouteNo="1" devices="tripinfo_flow_south_to_west.4 routing_flow_south_to_west.4" vType="veh_passenger" speedFactor="0.85" vaporized=""/>
    <tripinfo id="flow_south_to_west.6" depart="72.00" departLane="142049043#0_0" departPos="5.10" departSpeed="0.00" departDelay="0.00" arrival="195.00" arrivalLane="1126771718#2_0" arrivalPos="124.70" arrivalSpeed="16.08" duration="123.00" routeLength="1024.40" waitingTime="49.00" waitingCount="1" stopTime="0.00" timeLoss="74.11" rerouteNo="1" devices="tripinfo_flow_south_to_west.6 routing_flow_south_to_west.6" vType="veh_passenger" speedFactor="1.02" vaporized=""/>
    <tripinfo id="flow_south_to_north.3" depart="54.00" departLane="142049043#0_0" departPos="5.10" departSpeed="0.00" departDelay="0.00" arrival="196.00" arrivalLane="141821922#6_3" arrivalPos="162.96" arrivalSpeed="16.44" duration="142.00" routeLength="1300.84" waitingTime="60.00" waitingCount="1" stopTime="0.00" timeLoss="77.72" rerouteNo="1" devices="tripinfo_flow_south_to_north.3 routing_flow_south_to_north.3" vType="veh_passenger" speedFactor="1.02" vaporized=""/>
    <tripinfo id="flow_south_to_west.8" depart="96.00" departLane="142049043#0_0" departPos="5.10" departSpeed="0.00" departDelay="0.00" arrival="196.00" arrivalLane="1126771718#2_1" arrivalPos="124.70" arrivalSpeed="17.28" duration="100.00" routeLength="1024.40" waitingTime="27.00" waitingCount="1" stopTime="0.00" timeLoss="54.55" rerouteNo="1" devices="tripinfo_flow_south_to_west.8 routing_flow_south_to_west.8" vType="veh_passenger" speedFactor="1.09" vaporized=""/>
    <tripinfo id="flow_south_to_north.4" depart="75.00" departLane="142049043#0_0" departPos="5.10" departSpeed="0.00" departDelay="3.00" arrival="197.00" arrivalLane="141821922#6_1" arrivalPos="162.96" arrivalSpeed="15.49" duration="122.00" routeLength="1300.84" waitingTime="37.00" waitingCount="2" stopTime="0.00" timeLoss="55.70" rerouteNo="1" devices="tripinfo_flow_south_to_north.4 routing_flow_south_to_north.4" vType="veh_passenger" speedFactor="0.99" vaporized=""/>
    <tripinfo id="flow_south_to_west.7" depart="84.00" departLane="142049043#0_0" departPos="5.10" departSpeed="0.00" departDelay="0.00" arrival="197.00" arrivalLane="1126771718#2_0" arrivalPos="124.70" arrivalSpeed="15.13" duration="113.00" routeLength="1024.40" waitingTime="37.00" waitingCount="1" stopTime="0.00" timeLoss="61.76" rerouteNo="1" devices="tripinfo_flow_south_to_west.7 routing_flow_south_to_west.7" vType="veh_passenger" speedFactor="0.97" vaporized=""/>
    <tripinfo id="flow_south_to_north.6" depart="111.00" departLane="142049043#0_0" departPos="5.10" departSpeed="0.00" departDelay="3.00" arrival="197.00" arrivalLane="141821922#6_3" arrivalPos="162.96" arrivalSpeed="16.94" duration="86.00" routeLength="1300.84" waitingTime="4.00" waitingCount="1" stopTime="0.00" timeLoss="23.88" rerouteNo="1" devices="tripinfo_flow_south_to_north.6 routing_flow_south_to_north.6" vType="veh_passenger" speedFactor="1.04" vaporized=""/>
    <tripinfo id="flow_south_to_north.5" depart="90.00" departLane="142049043#0_0" departPos="5.10" departSpeed="0.00" departDelay="0.00" arrival="198.00" arrivalLane="141821922#6_2" arrivalPos="162.96" arrivalSpeed="16.56" duration="108.00" routeLength="1300.84" waitingTime="25.00" waitingCount="1" stopTime="0.00" timeLoss="44.79" rerouteNo="1" devices="tripinfo_flow_south_to_north.5 routing_flow_south_to_north.5" vType="veh_passenger" speedFactor="1.03" vaporized=""/>
    <tripinfo id="flow_south_to_north.7" depart="126.00" departLane="142049043#0_0" departPos="5.10" departSpeed="0.00" departDelay="0.00" arrival="199.00" arrivalLane="141821922#6_3" arrivalPos="162.96" arrivalSpeed="18.18" duration="73.00" routeLength="1300.84" waitingTime="0.00" waitingCount="0" stopTime="0.00" timeLoss="14.72" rerouteNo="1" devices="tripinfo_flow_south_to_north.7 routing_flow_south_to_north.7" vType="veh_passenger" speedFactor="1.12" vaporized=""/>
    <tripinfo id="flow_south_to_north.1" depart="18.00" departLane="142049043#0_0" departPos="5.10" departSpeed="0.00" departDelay="0.00" arrival="200.00" arrivalLane="141821922#6_1" arrivalPos="162.96" arrivalSpeed="15.52" duration="182.00" routeLength="1300.84" waitingTime="96.00" waitingCount="1" stopTime="0.00" timeLoss="115.34" rerouteNo="1" devices="tripinfo_flow_south_to_north.1 routing_flow_south_to_north.1" vType="veh_passenger" speedFactor="0.97" vaporized=""/>
    <tripinfo id="flow_south_to_west.9" depart="108.00" departLane="142049043#0_0" departPos="5.10" departSpeed="0.00" departDelay="0.00" arrival="200.00" arrivalLane="1126771718#2_0" arrivalPos="124.70" arrivalSpeed="15.72" duration="92.00" routeLength="1024.40" waitingTime="15.00" waitingCount="1" stopTime="0.00" timeLoss="42.70" rerouteNo="1" devices="tripinfo_flow_south_to_west.9 routing_flow_south_to_west.9" vType="veh_passenger" speedFactor="1.00" vaporized=""/>
    <tripinfo id="flow_east_to_south.3" depart="54.00" departLane="143870423_0" departPos="5.10" departSpeed="0.00" departDelay="0.00" arrival="201.00" arrivalLane="13848342#5_0" arrivalPos="189.10" arrivalSpeed="29.36" duration="147.00" routeLength="884.27" waitingTime="99.00" waitingCount="1" stopTime="0.00" timeLoss="116.85" rerouteNo="1" devices="tripinfo_flow_east_to_south.3 routing_flow_east_to_south.3" vType="veh_passenger" speedFactor="1.10" vaporized=""/>
    <tripinfo id="flow_north_to_east.8" depart="119.00" departLane="141821921#1_0" departPos="5.10" departSpeed="0.00" departDelay="3.80" arrival="201.00" arrivalLane="566501599_0" arrivalPos="82.30" arrivalSpeed="22.67" duration="82.00" routeLength="1138.89" waitingTime="0.00" waitingCount="0" stopTime="0.00" timeLoss="11.62" rerouteNo="1" devices="tripinfo_flow_north_to_east.8 routing_flow_north_to_east.8" vType="veh_passenger" speedFactor="0.83" vaporized=""/>